ITEM: TIMESTEP
0
ITEM: NUMBER OF ATOMS
700
ITEM: BOX BOUNDS pp pp pp
-10	10
-10	10
-10	10
ITEM: ATOMS index type x y z
     1	1	-9.58496	-4.02478	 5.42641
     2	2	-8.49649	-4.15878	 5.56125
     3	2	-8.95431	-3.82559	 6.31157
     4	2	-9.91985	-5.01697	 5.07385
     5	2	 9.62233	-4.68379	 5.82418
     6	2	-9.65181	-3.39836	 4.51865
     7	2	 9.89037	-3.06518	 5.26898
     8	1	-0.0298597	 6.63823	 4.97608
     9	2	0.992748	 6.50043	 5.37128
    10	2	0.935622	 6.61018	 4.43946
    11	2	-0.419982	 7.48191	 5.57349
    12	2	-0.477108	 7.59166	 4.64166
    13	2	-0.576656	 5.76772	  5.3812
    14	2	-0.633782	 5.87746	 4.44938
    15	1	 5.21061	 4.18416	-6.03874
    16	2	 4.75696	 3.68311	-5.16465
    17	2	 5.50517	 3.24792	-5.53122
    18	2	 5.39596	 5.21042	-5.67358
    19	2	 6.14418	 4.77522	-6.04015
    20	2	  4.3566	 4.31175	-6.72814
    21	2	 5.10481	 3.87655	-7.09472
    22	1	  3.7072	-6.99244	 -8.2332
    23	2	 4.00824	-7.61129	-7.36874
    24	2	 4.25331	 -7.9527	-8.20956
    25	2	 4.12417	-5.99857	-7.98979
    26	2	 4.36924	-6.33999	-8.83061
    27	2	 2.62157	-6.85535	-8.07985
    28	2	 2.86664	-7.19676	-8.92067
    29	1	0.243845	-3.27857	-9.92103
    30	2	0.911446	-2.52156	 9.62936
    31	2	0.712469	-3.25683	 9.07856
    32	2	-0.629439	-2.68442	-9.59659
    33	2	-0.828416	-3.41969	  9.8526
    34	2	0.747994	-3.52682	-8.96967
    35	2	0.549017	-4.26209	-9.52047
    36	1	 4.43511	-9.38767	 2.25052
    37	2	 4.63278	-9.89232	 3.21341
    38	2	 4.92938	-9.00192	 3.16035
    39	2	  3.3486	-9.53036	 2.10893
    40	2	  3.6452	-8.63996	 2.05588
    41	2	 4.87904	 9.92408	 1.50881
    42	2	 5.17563	-9.18552	 1.45575
    43	1	 4.29152	0.817619	 8.35548
    44	2	 4.05399	  1.8895	 8.23074
    45	2	 4.50975	 1.67053	 9.02317
    46	2	 4.82584	0.566935	 7.42138
    47	2	  5.2816	0.347973	  8.2138
    48	2	 3.31108	0.324867	 8.22568
    49	2	 3.76684	0.105906	 9.01811
    50	1	-2.53318	 5.57458	 -7.1566
    51	2	-1.45548	 5.81555	-7.19367
    52	2	-2.01592	  6.4189	-7.64697
    53	2	-2.73173	  5.4708	-6.07461
    54	2	-3.29218	 6.07414	 -6.5279
    55	2	-2.57167	 4.53236	-7.52157
    56	2	-3.13212	  5.1357	-7.97487
    57	1	-1.31972	 6.52165	-1.16334
    58	2	-1.19598	  7.5781	-0.864192
    59	2	-0.44147	 7.03366	-0.730417
    60	2	-1.66722	 6.59444	-2.20969
    61	2	-0.912707	    6.05	-2.07591
    62	2	-2.22773	 6.20906	-0.616794
    63	2	-1.47322	 5.66461	-0.483019
    64	1	 3.00794	-8.68873	0.262765
    65	2	 3.94694	-9.06659	-0.180425
    66	2	 3.78629	  -8.149	-0.30623
    67	2	 3.07739	-9.01357	  1.3166
    68	2	 2.91674	-8.09599	 1.19079
    69	2	 2.24047	-9.36243	-0.159167
    70	2	 2.07983	-8.44484	-0.284973
    71	1	0.432943	-9.76424	 6.10446
    72	2	0.633392	-8.77457	  6.5531
    73	2	-0.175345	-8.84216	 6.07878
    74	2	0.534734	 9.54494	  6.9608
    75	2	-0.274003	 9.47735	 6.48648
    76	2	 1.34381	 -9.9617	 5.51097
    77	2	0.535072	  9.9707	 5.03666
    78	1	-8.19081	 1.19297	-3.61528
    79	2	-8.99059	0.454415	-3.80448
    80	2	-8.27336	0.142366	-3.28313
    81	2	-8.73798	 2.05541	-3.19373
    82	2	-8.02075	 1.74336	-2.67239
    83	2	-7.91971	 1.53715	-4.62965
    84	2	-7.20248	  1.2251	 -4.1083
    85	1	 6.57363	-8.46289	-7.72031
    86	2	 6.03737	-9.19561	-7.09067
    87	2	 5.50141	-8.72947	-7.70635
    88	2	 7.38894	-9.06122	-8.16547
    89	2	 6.85298	-8.59509	-8.78115
    90	2	 7.09851	-7.83105	-6.98128
    91	2	 6.56255	-7.36491	-7.59696
    92	1	0.951723	-7.56092	 2.52574
    93	2	 1.88232	-6.99785	 2.33122
    94	2	 1.31326	-7.09812	 1.58979
    95	2	0.510629	-7.02959	 3.38831
    96	2	-0.0584316	-7.12986	 2.64688
    97	2	 1.31581	-8.50491	 2.96984
    98	2	0.746747	-8.60518	 2.22841
    99	1	 7.13701	  5.3376	-6.02105
   100	2	 7.52577	 4.57449	-6.71921
   101	2	 6.61971	 4.47985	-6.48749
   102	2	 7.39839	 6.28994	-6.51667
   103	2	 6.49232	  6.1953	-6.28495
   104	2	 7.84596	 5.29033	-5.17485
   105	2	 6.93989	 5.19569	-4.94313
   106	1	-4.08077	 1.95165	 5.09295
   107	2	-3.10927	 1.84737	 5.60893
   108	2	-3.06137	 1.89007	 4.67112
   109	2	-4.53264	 2.83391	 5.58114
   110	2	-4.48474	 2.87661	 4.64334
   111	2	-4.67224	 1.10961	  5.4955
   112	2	-4.62434	 1.15232	 4.55769
   113	1	-6.69968	-0.651934	-3.48977
   114	2	-5.96665	-1.24767	-4.06306
   115	2	-6.76606	 -1.6942	-3.85058
   116	2	-6.81911	0.259563	 -4.1028
   117	2	-7.61852	-0.186967	-3.89032
   118	2	-6.11417	-0.297906	-2.62216
   119	2	-6.91358	-0.744436	-2.40968
   120	1	 6.42211	-7.37418	-8.13079
   121	2	 6.08398	  -7.609	 -7.1054
   122	2	 6.15805	-6.69278	-7.30202
   123	2	 5.71261	-7.93521	-8.76543
   124	2	 5.78669	-7.01899	-8.96204
   125	2	 7.35864	-7.95266	-8.22663
   126	2	 7.43271	-7.03644	-8.42324
   127	1	 8.88521	 1.90879	-2.31771
   128	2	 8.45264	 2.50723	-1.49573
   129	2	  8.2139	 2.78534	-2.36133
   130	2	  8.5927	0.875229	-2.05871
   131	2	 8.35396	 1.15333	-2.92431
   132	2	 9.96841	 1.92675	-2.10029
   133	2	 9.72967	 2.20486	-2.96589
   134	1	 6.52246	 1.74262	-0.873909
   135	2	 6.90843	  1.7912	0.160288
   136	2	 7.36193	 1.19556	-0.408177
   137	2	 6.53143	  2.7993	-1.19676
   138	2	 6.98493	 2.20367	-1.76523
   139	2	 5.44726	 1.53081	-0.732554
   140	2	 5.90076	0.935175	-1.30102
   141	1	 8.05664	-2.05671	 1.94743
   142	2	 8.36003	-1.35031	  1.1538
   143	2	 7.77563	-0.998255	 1.80043
   144	2	 9.02148	-2.42739	 2.33802
   145	2	 8.43708	-2.07534	 2.98465
   146	2	 7.66499	-2.92051	 1.38054
   147	2	 7.08059	-2.56845	 2.02716
   148	1	-9.21436	-9.95186	 1.80403
   149	2	 -8.2039	 9.60434	 1.85794
   150	2	-8.32459	-9.75748	  1.1784
   151	2	-9.38294	-9.58199	 2.83149
   152	2	-9.50363	-8.94381	 2.15195
   153	2	-9.87523	 9.16478	 1.74196
   154	2	-9.99591	 9.80296	 1.06243
   155	1	 -3.8908	-8.40415	-8.40774
   156	2	-4.02155	-7.79732	-9.32183
   157	2	-4.80812	-8.18516	-8.98348
   158	2	-3.37296	-7.71351	-7.71799
   159	2	-4.15953	-8.10135	-7.37963
   160	2	-3.09804	-9.11985	-8.69093
   161	2	-3.88461	-9.50769	-8.35257
   162	1	-9.20082	-5.70094	 5.47661
   163	2	 9.93663	-5.12072	  5.8511
   164	2	-9.53207	-5.52098	 6.51525
   165	2	-8.67489	-4.97975	 4.82531
   166	2	-8.14358	-5.38001	 5.48947
   167	2	-9.66115	-6.40194	 4.75717
   168	2	-9.12984	-6.80221	 5.42133
   169	1	 2.72982	-5.50254	-3.70146
   170	2	 3.15768	-4.50943	-3.92854
   171	2	 2.47794	-4.51299	-3.27928
   172	2	   3.619	-6.11015	-3.45434
   173	2	 2.93926	-6.11372	-2.80508
   174	2	  2.4324	 -5.8827	 -4.6954
   175	2	 1.75266	-5.88627	-4.04614
   176	1	  7.5983	-5.34718	-9.13805
   177	2	 8.24483	-4.75568	-8.46497
   178	2	 7.50166	-5.15832	-8.05367
   179	2	 8.30624	-6.04679	-9.61791
   180	2	 7.56307	-6.44943	 -9.2066
   181	2	  7.3586	 -4.6351	-9.94823
   182	2	 6.61542	-5.03774	-9.53693
   183	1	-1.64982	-2.98084	 7.56193
   184	2	 -1.5615	-2.85845	 8.65652
   185	2	-0.794983	-3.19454	 8.22863
   186	2	-1.97817	-1.98215	 7.22178
   187	2	-1.21166	-2.31825	 6.79389
   188	2	-2.55955	-3.59777	 7.44933
   189	2	-1.79303	-3.93386	 7.02144
   190	1	 1.95673	-7.30874	0.269333
   191	2	  2.3942	-7.78734	-0.625355
   192	2	 2.27491	-6.85702	-0.687542
   193	2	 2.62173	 -7.6438	 1.08568
   194	2	 2.50245	-6.71347	 1.02349
   195	2	  1.0332	-7.89057	0.440958
   196	2	0.913913	-6.96024	0.378771
   197	1	  -9.492	0.128157	-3.98257
   198	2	 -8.6391	0.504774	 -3.3896
   199	2	 -8.9535	-0.34584	-3.14219
   200	2	-9.13212	0.211643	-5.02392
   201	2	-9.44651	-0.638971	-4.77652
   202	2	  9.7668	0.943974	-3.90531
   203	2	  9.4524	0.0933598	 -3.6579
   204	1	 1.15156	-9.99455	-5.15848
   205	2	 1.20683	 -9.2374	-5.96133
   206	2	0.541971	-9.08624	-5.31425
   207	2	 2.18576	 9.97233	-4.77088
   208	2	  1.5209	-9.87651	-4.12381
   209	2	 1.05939	 9.05468	-5.71385
   210	2	0.394525	 9.20584	-5.06677
   211	1	-4.14404	 4.95164	-0.497355
   212	2	-4.62647	 4.96408	 0.49663
   213	2	-4.84544	  4.2276	-0.0449029
   214	2	-3.07037	 5.05656	-0.258352
   215	2	-3.28934	 4.32009	-0.799886
   216	2	-4.40683	 5.93899	-0.918043
   217	2	 -4.6258	 5.20252	-1.45958
   218	1	-3.20584	 7.32983	 9.57638
   219	2	-2.32962	 6.84967	  9.1046
   220	2	-2.36876	 6.77823	-9.95893
   221	2	-4.05992	 6.88454	 9.03493
   222	2	-4.09906	 6.81309	  9.9714
   223	2	-3.16927	 8.36246	 9.18492
   224	2	-3.20842	 8.29101	-9.87862
   225	1	-1.18452	-7.88134	 9.54161
   226	2	-0.274868	-7.49364	 9.04855
   227	2	-0.826609	 -8.0279	 8.50657
   228	2	-1.66183	-6.96964	 9.94396
   229	2	-2.21357	-7.50391	 9.40198
   230	2	-0.789258	-8.37934	-9.55469
   231	2	  -1.341	-8.91361	 9.90333
   232	1	 1.56273	-0.691168	 0.39594
   233	2	 2.37767	-1.43174	0.304727
   234	2	 2.24066	-0.892624	-0.453019
   235	2	 1.82033	-0.144784	 1.32115
   236	2	 1.68332	0.394335	0.563401
   237	2	0.695708	-1.30565	0.698564
   238	2	0.558694	-0.766535	-0.0591811
   239	1	-0.709384	-3.25484	-8.63805
   240	2	0.348955	 -2.9743	-8.48933
   241	2	-0.0459286	-2.64275	 -9.2753
   242	2	-1.19096	-2.93151	 -7.6976
   243	2	-1.58584	-2.59997	-8.48357
   244	2	-0.693823	-4.35602	-8.54828
   245	2	-1.08871	-4.02447	-9.33425
   246	1	 1.72044	0.878409	 4.37206
   247	2	  2.2467	 1.54836	  5.0757
   248	2	 2.52766	 1.60825	 4.18067
   249	2	0.655328	  1.1146	 4.54713
   250	2	0.936284	 1.17449	  3.6521
   251	2	 1.83786	-0.117573	 4.83588
   252	2	 2.11881	-0.0576793	 3.94085
   253	1	 1.26381	-7.06598	-2.98687
   254	2	 1.58853	-6.05285	-2.68848
   255	2	 1.07046	-6.51049	-2.05149
   256	2	 2.21039	 -7.5623	-3.26715
   257	2	 1.69231	-8.01994	-2.63016
   258	2	0.769634	-6.89632	-3.96048
   259	2	0.251557	-7.35396	-3.32348
   260	1	 3.46934	-9.41641	0.246683
   261	2	 4.05429	 9.73938	-0.160786
   262	2	 3.96467	-9.52208	-0.735348
   263	2	 3.96821	-9.20492	 1.20965
   264	2	 3.87859	-8.46638	0.635084
   265	2	 2.51995	 -9.8915	0.553032
   266	2	 2.43032	-9.15295	-0.0215291
   267	1	-3.24368	-5.94394	-8.99045
   268	2	 -2.2079	 -6.2055	-8.70825
   269	2	-2.40954	 -6.3002	-9.62147
   270	2	-3.36566	 -4.9231	-8.58559
   271	2	 -3.5673	 -5.0178	-9.49881
   272	2	-3.85503	-6.56117	-8.30767
   273	2	-4.05667	-6.65587	-9.22089
   274	1	 7.71654	-0.0153863	-6.42194
   275	2	 6.85195	-0.05802	-5.73523
   276	2	 7.64948	-0.423067	-5.39715
   277	2	 7.76837	 1.05358	-6.69676
   278	2	 8.56589	0.688534	-6.35868
   279	2	 7.33302	-0.49415	-7.34096
   280	2	 8.13054	-0.859197	-7.00288
   281	1	 5.04992	-9.94168	-5.62461
   282	2	 6.06935	-9.86986	-5.20447
   283	2	 6.02392	-9.88481	-6.14326
   284	2	 4.51795	-9.10226	-5.14163
   285	2	 4.47252	 -9.1172	-6.08041
   286	2	 4.63061	  9.1695	-5.11956
   287	2	 4.58519	 9.15455	-6.05835
   288	1	-0.604294	-5.23335	 4.89206
   289	2	0.260343	-5.26297	  5.5794
   290	2	0.475501	-5.29061	 4.66477
   291	2	-1.15552	-4.33297	 5.21822
   292	2	-0.940359	-4.36061	  4.3036
   293	2	-1.24045	-6.06264	 5.25052
   294	2	-1.02529	-6.09028	 4.33589
   295	1	 -6.3193	 6.30912	 -7.0476
   296	2	-5.54982	 6.75645	-7.70234
   297	2	-6.43678	 6.87069	-7.99191
   298	2	-6.08926	 6.74009	-6.05652
   299	2	-6.97621	 6.85433	-6.34609
   300	2	-5.98839	 5.25945	-6.94957
   301	2	-6.87535	 5.37369	-7.23915
   302	1	-5.02775	0.356881	-9.02744
   303	2	-4.35298	-0.517466	-8.99431
   304	2	-3.97768	0.288975	-8.69033
   305	2	-5.91609	0.0117019	-8.46833
   306	2	 -5.5408	0.818143	-8.16435
   307	2	-5.37712	0.366746	 9.92435
   308	2	-5.00183	 1.17319	-9.77167
   309	1	-2.37177	 8.09329	-5.46453
   310	2	-2.40925	 9.14778	-5.13657
   311	2	-3.14029	 8.86403	 -5.6549
   312	2	-2.22258	 7.54007	-4.51976
   313	2	-2.95362	 7.25633	 -5.0381
   314	2	-1.38692	 8.01765	-5.95976
   315	2	-2.11796	 7.73391	 -6.4781
   316	1	   1.335	-8.69004	 8.50714
   317	2	 1.64447	-8.52174	 9.55442
   318	2	 2.34909	-8.63092	  8.9419
   319	2	0.662166	 -7.8378	  8.3025
   320	2	 1.36679	-7.94698	 7.68998
   321	2	0.641424	-9.54681	 8.58328
   322	2	 1.34605	  -9.656	 7.97075
   323	1	 9.55799	 4.88592	 -9.7028
   324	2	 9.52728	 3.97302	 9.67546
   325	2	  9.0233	 3.93416	-9.53202
   326	2	 9.26251	 5.68262	  9.5909
   327	2	 8.75853	 5.64376	-9.61658
   328	2	-9.35986	  5.0604	-9.56353
   329	2	-9.86385	 5.02155	-8.77101
   330	1	 1.23115	-6.63294	 5.83514
   331	2	 1.81373	-7.56883	 5.76023
   332	2	 1.94775	-6.95722	 5.05911
   333	2	 1.48608	-6.25663	 6.84227
   334	2	  1.6201	-5.64503	 6.14114
   335	2	0.192598	-6.99077	 5.95461
   336	2	0.326619	-6.37916	 5.25348
   337	1	   4.177	  6.2493	 1.68392
   338	2	 3.52983	 6.50629	 2.54184
   339	2	 3.67183	 5.58655	  2.4095
   340	2	 5.08971	 6.84394	 1.86897
   341	2	 5.23172	  5.9242	 1.73664
   342	2	 3.69844	 6.77727	0.839444
   343	2	 3.84045	 5.85753	 0.70711
   344	1	  3.8778	 4.88384	-1.43099
   345	2	 3.15487	 5.17285	-0.646925
   346	2	 3.09857	 4.27918	-0.932905
   347	2	 4.85089	 5.17845	-0.998323
   348	2	 4.79459	 4.28478	 -1.2843
   349	2	 3.71209	 5.64073	-2.21874
   350	2	 3.65579	 4.74706	-2.50472
   351	1	-6.67596	-5.37989	 -1.2079
   352	2	-6.67245	-4.69676	-0.339437
   353	2	-5.90961	-5.23941	-0.424388
   354	2	-6.86912	-4.70384	-2.06027
   355	2	-6.10629	-5.24649	-2.14522
   356	2	-7.63055	-5.92511	-1.09655
   357	2	-6.86771	-6.46775	 -1.1815
   358	1	-8.19787	 6.69758	 6.38072
   359	2	-7.14029	 6.53252	 6.65494
   360	2	-7.31026	 6.58685	 5.73203
   361	2	-8.47255	 7.59566	 6.96287
   362	2	-8.64252	 7.64998	 6.03996
   363	2	 -8.7258	 5.88308	 6.90871
   364	2	-8.89577	  5.9374	  5.9858
   365	1	 1.78695	-4.77719	 1.30253
   366	2	 2.81502	-5.17969	 1.34694
   367	2	 2.32086	-5.42813	0.586892
   368	2	 1.93555	-3.68995	  1.4318
   369	2	 1.44139	-3.93838	0.671748
   370	2	 1.35154	-5.08929	 2.26892
   371	2	 0.85737	-5.33773	 1.50887
   372	1	-4.08192	-2.58196	-1.27763
   373	2	-3.23461	-2.18183	-0.692099
   374	2	-3.09405	-2.22499	-1.62053
   375	2	-4.92997	-1.94906	-0.959586
   376	2	-4.78941	-1.99221	-1.88802
   377	2	-4.29203	-3.55024	-0.788576
   378	2	-4.15148	 -3.5934	-1.71701
   379	1	 -0.9379	 1.17799	 -9.3863
   380	2	0.145659	 1.37316	-9.29298
   381	2	-0.213014	 1.51101	 9.84914
   382	2	-1.37678	 1.80259	-8.58745
   383	2	-1.73545	 1.94044	-9.44533
   384	2	-1.04457	0.151452	-8.99166
   385	2	-1.40324	0.289302	-9.84954
   386	1	-2.29773	-5.00228	 1.14591
   387	2	-1.34843	-5.13236	  1.6962
   388	2	-1.26407	-5.07283	0.761885
   389	2	-2.75385	-4.12197	 1.63367
   390	2	-2.66949	-4.06244	0.699357
   391	2	-2.91744	-5.84179	 1.50933
   392	2	-2.83308	-5.78226	0.575014
   393	1	 1.98104	 8.70258	 6.76523
   394	2	 1.24631	 8.30687	 6.04101
   395	2	 1.10581	 9.19744	 6.30698
   396	2	 2.95102	  8.5063	  6.2738
   397	2	 2.81052	 9.39687	 6.53977
   398	2	 1.95653	 7.95872	 7.58191
   399	2	 1.81603	 8.84929	 7.84788
   400	1	 2.06326	 1.62095	 6.97018
   401	2	0.997619	 1.38847	 6.79336
   402	2	 1.16808	 2.24718	 7.13565
   403	2	 2.53481	 1.40143	 5.99532
   404	2	 2.70527	 2.26014	 6.33761
   405	2	 2.40166	0.784873	 7.60844
   406	2	 2.57212	 1.64358	 7.95072
   407	1	 -9.5767	0.940866	 2.31474
   408	2	-8.66229	0.759714	 2.90799
   409	2	-8.52367	0.878525	 1.98589
   410	2	 9.95109	 1.79492	 2.83292
   411	2	-9.91029	 1.91373	 1.91082
   412	2	 9.77318	0.0897492	 2.58646
   413	2	  9.9118	0.208561	 1.66436
   414	1	-0.829716	-6.76779	-6.47916
   415	2	0.164831	 -6.7145	-6.00068
   416	2	0.175601	-6.81427	-6.93531
   417	2	-1.33697	-5.85847	-6.10938
   418	2	 -1.3262	-5.95825	  -7.044
   419	2	-1.33316	-7.58073	-5.92547
   420	2	-1.32239	-7.68051	 -6.8601
   421	1	 6.88772	 -6.0233	-0.319582
   422	2	  7.3383	-5.99066	0.688789
   423	2	 7.46269	-5.21671	0.170019
   424	2	 5.83451	-6.28916	-0.117146
   425	2	 5.95891	-5.51521	-0.635915
   426	2	 7.30374	  -6.951	-0.752235
   427	2	 7.42814	-6.17705	  -1.271
   428	1	 6.97528	 3.71844	 -9.7073
   429	2	 6.40843	 2.97722	-9.11555
   430	2	 6.46533	 3.83439	-8.73395
   431	2	 6.48812	 3.67648	 9.30183
   432	2	 6.54503	 4.53366	 9.68343
   433	2	 7.94393	 3.21586	-9.88058
   434	2	 8.00084	 4.07303	-9.49898
   435	1	-1.66203	 1.47747	-0.866049
   436	2	-1.01673	 1.94617	-0.101329
   437	2	-1.48362	 2.54696	 -0.6533
   438	2	-2.29614	0.791737	-0.275639
   439	2	-2.76303	 1.39252	-0.82761
   440	2	-0.972884	0.793314	-1.39322
   441	2	-1.43978	 1.39409	-1.94519
   442	1	-8.10682	 5.01678	-3.22642
   443	2	 -8.0147	 4.20534	-2.48213
   444	2	-8.06984	 5.07248	 -2.1235
   445	2	-8.97425	 4.70389	-3.83516
   446	2	-9.02939	 5.57104	-3.47654
   447	2	 -7.2488	 4.84039	 -3.8999
   448	2	-7.30394	 5.70754	-3.54128
   449	1	-5.88099	 6.85364	-8.45829
   450	2	-4.97593	 7.01011	-9.07252
   451	2	-5.77315	 6.89544	-9.55717
   452	2	-5.87037	 7.71666	-7.76838
   453	2	-6.66759	 7.60199	-8.25303
   454	2	-5.60085	 6.00614	-7.80701
   455	2	-6.39808	 5.89147	-8.29166
   456	1	 3.11453	 5.08313	-4.12337
   457	2	 3.98051	 4.99417	-3.44287
   458	2	 4.12976	 4.69443	-4.32121
   459	2	 2.82952	 6.14674	-4.03177
   460	2	 2.97876	   5.847	-4.91011
   461	2	 2.30971	 4.55808	-3.57795
   462	2	 2.45895	 4.25834	-4.45629
   463	1	-8.13119	-1.69802	-2.97573
   464	2	-7.16418	-2.22939	-2.91718
   465	2	-7.34109	-1.81055	-3.73991
   466	2	-8.10184	-1.02303	-2.10141
   467	2	-8.27875	-0.604186	-2.92414
   468	2	-8.86219	 -2.4699	 -2.6745
   469	2	 -9.0391	-2.05106	-3.49723
   470	1	-2.13162	 4.19896	 5.69733
   471	2	-1.81992	 4.23819	 6.75668
   472	2	-2.06473	 5.06438	 6.38106
   473	2	-2.92378	 3.42865	 5.69548
   474	2	-3.16858	 4.25483	 5.31986
   475	2	-1.28395	 3.69076	 5.20328
   476	2	-1.52875	 4.51695	 4.82766
   477	1	-4.85394	-6.42823	-2.31938
   478	2	-4.58497	 -5.6074	-3.00843
   479	2	-4.39411	-6.47234	-3.32313
   480	2	-5.91865	-6.23311	-2.09751
   481	2	-5.72779	-7.09806	-2.41221
   482	2	 -4.3445	-6.14676	-1.38016
   483	2	-4.15364	-7.01171	-1.69486
   484	1	0.152018	-1.04582	 4.72765
   485	2	0.789414	-0.216106	 4.37241
   486	2	0.0208953	0.0448425	 4.84663
   487	2	0.857618	-1.68335	 5.29032
   488	2	0.089099	 -1.4224	 5.76454
   489	2	-0.0381991	-1.62944	  3.8089
   490	2	-0.806718	-1.36849	 4.28312
   491	1	 7.91418	-1.09509	-5.73627
   492	2	  7.8525	-0.00813731	 -5.5475
   493	2	 8.24682	-0.25011	-6.36576
   494	2	 6.87194	  -1.435	-5.59809
   495	2	 7.26626	-1.67698	-6.41635
   496	2	 8.42661	-1.47916	-4.83582
   497	2	 8.82094	-1.72114	-5.65409
   498	1	 7.31105	-0.697333	-3.65997
   499	2	 8.33989	-1.06003	 -3.8356
   500	2	  7.6686	-1.51672	-4.30933
   501	2	  7.3845	0.384182	-3.87405
   502	2	 6.71321	-0.0725021	-4.34777
   503	2	  7.2157	-0.731123	-2.55967
   504	2	 6.54441	-1.18781	-3.03339
   505	1	 -9.0161	-2.87651	-9.49472
   506	2	-8.83657	 -2.1025	 9.73744
   507	2	-9.33603	-2.84443	 9.44815
   508	2	 -9.4624	 -2.3059	-8.66039
   509	2	-9.96186	-3.04783	-8.94967
   510	2	-8.00013	-3.10824	-9.12729
   511	2	-8.49958	-3.85017	-9.41657
   512	1	-4.85049	-4.63769	-8.61933
   513	2	-5.27206	-4.62443	-7.59806
   514	2	-5.32027	-3.80784	-8.06115
   515	2	-5.37754	-5.48198	-9.09922
   516	2	-5.42575	-4.66539	-9.56231
   517	2	-3.82956	-5.03153	-8.46608
   518	2	-3.87777	-4.21494	-8.92918
   519	1	-7.39576	-4.73772	-0.84301
   520	2	-6.51305	-4.24698	-0.394788
   521	2	-7.16657	-3.66236	-0.733514
   522	2	-7.74154	-5.41595	-0.0421732
   523	2	-8.39506	-4.83133	-0.380899
   524	2	-6.95242	-5.42714	-1.58398
   525	2	-7.60594	-4.84253	 -1.9227
   526	1	-9.51135	-3.88325	 -1.9306
   527	2	-8.82963	-4.71371	-2.18847
   528	2	-8.95773	-4.07612	 -2.8672
   529	2	-9.08536	 -3.4895	-0.990182
   530	2	-9.21345	-2.85191	-1.66891
   531	2	 9.57309	-4.40293	-1.59507
   532	2	   9.445	-3.76534	-2.27379
   533	1	 4.18212	-1.79165	 -4.5141
   534	2	 4.33332	-2.31328	-5.47636
   535	2	 4.64518	-2.77382	-4.71857
   536	2	 3.10016	-1.56746	 -4.5156
   537	2	 3.41202	  -2.028	-3.75781
   538	2	 4.64509	-0.803388	-4.68704
   539	2	 4.95695	-1.26393	-3.92925
   540	1	 6.89238	 2.16338	 5.88618
   541	2	 7.96818	  2.0441	 6.10825
   542	2	  7.7728	 2.44763	 5.28206
   543	2	 6.50925	 2.69927	 6.77327
   544	2	 6.31386	  3.1028	 5.94708
   545	2	 6.49278	 1.14147	 6.01631
   546	2	  6.2974	   1.545	 5.19012
   547	1	 -7.5498	  9.7416	 1.18173
   548	2	-7.76204	 8.70864	 1.51163
   549	2	-6.92539	   9.048	 1.77328
   550	2	-8.42331	-9.69099	  1.5504
   551	2	-7.58667	-9.35162	 1.81205
   552	2	-7.71902	 9.69811	0.0906873
   553	2	-6.88237	-9.96253	0.352334
   554	1	0.224173	-1.96463	-1.42505
   555	2	 1.15593	-1.61896	-0.942116
   556	2	 1.22459	-1.79587	-1.86276
   557	2	-0.507686	-1.18393	-1.14976
   558	2	-0.439034	-1.36084	-2.07041
   559	2	-0.0787081	-2.82565	-0.802309
   560	2	-0.0100559	-3.00256	-1.72296
   561	1	-2.07116	-5.80722	-3.99579
   562	2	 -1.1268	-5.74056	-3.42602
   563	2	-1.03146	-5.72666	-4.36107
   564	2	-2.67957	 -4.9874	-3.57315
   565	2	-2.58423	 -4.9735	 -4.5082
   566	2	-2.55012	-6.71456	-3.58562
   567	2	-2.45479	-6.70066	-4.52067
   568	1	-6.30265	-1.77749	-1.75448
   569	2	-5.70417	-1.89764	-0.833455
   570	2	  -6.061	-2.69304	-1.18504
   571	2	-5.62041	-1.22979	-2.42937
   572	2	-5.97725	-2.02519	-2.78096
   573	2	-7.04811	-1.01192	-1.47323
   574	2	-7.40495	-1.80732	-1.82482
   575	1	  -8.799	 7.66574	 1.38543
   576	2	-9.86378	 7.82367	  1.6348
   577	2	-9.60804	  8.1069	0.775741
   578	2	-8.64848	 6.59037	 1.58998
   579	2	-8.39274	  6.8736	0.730922
   580	2	-8.26834	 8.15832	 2.22009
   581	2	 -8.0126	 8.44155	 1.36103
   582	1	 2.29403	 9.37814	-5.42435
   583	2	 3.38184	 9.51404	-5.28608
   584	2	 3.10522	 9.38128	 -6.1746
   585	2	 1.86326	-9.73502	-4.92552
   586	2	 1.58664	-9.86778	-5.81403
   587	2	 2.05193	 8.55452	-4.72869
   588	2	 1.77532	 8.42177	 -5.6172
   589	1	 2.55124	-4.60531	 6.05552
   590	2	 2.47789	-5.16127	 5.10345
   591	2	 3.05436	-4.41891	 5.08959
   592	2	 2.81381	-5.39069	 6.78705
   593	2	 3.39028	-4.64834	 6.77319
   594	2	 1.49731	-4.37752	 6.29684
   595	2	 2.07378	-3.63516	 6.28299
   596	1	 -4.5041	 -2.4488	-4.23494
   597	2	-4.87759	-2.14691	-3.23982
   598	2	-3.94467	-2.10403	-3.34664
   599	2	-5.08607	-1.81336	-4.92661
   600	2	-4.15315	-1.77047	-5.03344
   601	2	-4.94801	-3.45047	-4.37815
   602	2	-4.01509	-3.40758	-4.48497
   603	1	 4.14593	-5.09638	 8.77028
   604	2	 4.02597	-5.37589	 7.70803
   605	2	 3.77388	-4.49567	 7.92079
   606	2	 5.20161	-5.34656	 8.97964
   607	2	 4.94953	-4.46635	 9.19241
   608	2	 3.58833	  -5.887	 9.30403
   609	2	 3.33624	-5.00678	  9.5168
   610	1	-0.825515	-2.30314	-7.55328
   611	2	-0.125629	-2.90516	-6.94614
   612	2	0.0626325	 -2.8809	-7.86677
   613	2	-0.819594	-1.32138	-7.04632
   614	2	-0.631333	-1.29712	-7.96695
   615	2	-1.81372	-2.71926	-7.28644
   616	2	-1.62545	  -2.695	-8.20707
   617	1	-6.13493	-4.54091	 3.61149
   618	2	-5.45111	-4.07011	 4.34063
   619	2	-5.32765	-3.80451	 3.44743
   620	2	-7.13528	-4.32985	 4.03059
   621	2	-7.01181	-4.06425	 3.13739
   622	2	-6.00359	-5.62117	 3.80304
   623	2	-5.88012	-5.35556	 2.90984
   624	1	 7.17298	 5.72658	 9.05288
   625	2	 7.48482	 6.74889	 8.77266
   626	2	 7.98355	 6.05653	 8.37834
   627	2	 6.09287	 5.71922	 8.82007
   628	2	  6.5916	 5.02685	 8.42575
   629	2	 7.19315	 5.75016	-9.84261
   630	2	 7.69189	 5.05779	 9.76307
   631	1	 1.97873	-6.13267	 9.27801
   632	2	 1.69041	-6.35298	-9.67832
   633	2	 1.09654	-5.79602	 9.85187
   634	2	 2.12811	-7.13605	 8.84005
   635	2	 1.53424	-6.57909	 8.37025
   636	2	 3.00847	-5.74442	 9.37701
   637	2	  2.4146	-5.18746	 8.90721
   638	1	-7.72079	 5.87489	-7.06462
   639	2	-6.72049	 5.87467	-6.59526
   640	2	-6.72109	 5.87477	-7.53526
   641	2	-8.22035	 6.74095	-6.59421
   642	2	-8.22094	 6.74106	-7.53421
   643	2	-8.22064	  5.0089	 -6.5944
   644	2	-8.22124	   5.009	 -7.5344
   645	1	-3.57716	 1.27479	  5.3312
   646	2	-2.57133	 1.28206	 5.78853
   647	2	-2.58317	 1.27566	 4.84863
   648	2	-4.07479	 2.14195	 5.80162
   649	2	-4.08663	 2.13555	 4.86171
   650	2	 -4.0676	0.409957	 5.81332
   651	2	-4.07944	0.403558	 4.87341
   652	1	0.869301	-3.68424	-9.81558
   653	2	0.814989	 -3.9673	 9.11773
   654	2	0.150122	-3.36908	 9.40702
   655	2	 1.90756	 -3.3235	-9.70252
   656	2	  1.2427	-2.72528	-9.41323
   657	2	0.882651	-4.65924	-9.29587
   658	2	0.217784	-4.06102	-9.00659
   659	1	 8.81414	-1.54895	 7.96049
   660	2	  9.8585	-1.19844	  7.8747
   661	2	 9.58988	-1.81846	 7.22123
   662	2	  8.2334	-0.609221	 7.98366
   663	2	 7.96478	-1.22924	 7.33019
   664	2	 8.75345	-1.90918	  9.0033
   665	2	 8.48484	 -2.5292	 8.34983
   666	1	  7.9456	-7.83339	-2.07764
   667	2	 7.09058	-7.18391	-2.33844
   668	2	 7.83781	-7.10737	-2.90359
   669	2	 7.49291	-8.84025	-2.03079
   670	2	 8.24014	-8.76372	-2.59594
   671	2	 8.13246	 -7.5908	-1.01598
   672	2	 8.87969	-7.51427	-1.58112
   673	1	-7.39649	-8.57453	-1.89241
   674	2	 -8.4997	-8.52933	-1.93456
   675	2	-8.11814	 -9.3149	-2.28225
   676	2	-7.17604	-8.37616	-0.828013
   677	2	-6.79447	-9.16173	 -1.1757
   678	2	-7.08607	-7.63975	-2.39313
   679	2	-6.70451	-8.42532	-2.74082
   680	1	-3.90853	-1.42449	 5.67929
   681	2	-3.38104	-1.22299	 4.72953
   682	2	-4.28932	-1.44885	 4.64232
   683	2	 -3.7049	-0.518699	 6.27843
   684	2	-4.61318	-0.744567	 6.19122
   685	2	-3.27724	-2.19299	 6.16072
   686	2	-4.18552	-2.41886	 6.07351
   687	1	 7.61584	 1.86539	 7.56932
   688	2	 6.78044	 2.28831	 8.15596
   689	2	 7.63085	 2.38408	 8.54484
   690	2	 7.49549	 2.34102	 6.57928
   691	2	  8.3459	 2.43679	 6.96816
   692	2	 7.29597	0.823169	 7.38942
   693	2	 8.14639	0.918944	 7.77829
   694	1	-8.86744	-8.63455	 2.90455
   695	2	-9.91672	-8.41081	 3.16882
   696	2	 -9.2727	-7.88969	 3.61297
   697	2	-8.86113	-8.55109	 1.80279
   698	2	-8.21711	-8.02997	 2.24693
   699	2	-8.79048	-9.72342	 3.07584
   700	2	-8.14646	-9.20229	 3.51999
ITEM: TIMESTEP
4800
ITEM: NUMBER OF ATOMS
700
ITEM: BOX BOUNDS pp pp pp
-10	10
-10	10
-10	10
ITEM: ATOMS index type x y z
     1	1	 9.62956	-3.51624	 5.35128
     2	2	-9.83613	-3.07319	 6.21101
     3	2	 9.22624	-3.02127	 6.25308
     4	2	-9.95833	-4.54008	 5.29814
     5	2	 9.10405	-4.48815	 5.34021
     6	2	-9.91041	-3.01334	 4.48159
     7	2	 9.15197	-2.96141	 4.52365
     8	1	-0.455257	 6.99312	 4.32656
     9	2	-0.278087	 6.83097	 3.24804
    10	2	0.326366	 6.39677	 3.82224
    11	2	 -1.5144	  6.7055	  4.4546
    12	2	-0.909947	 6.27131	 5.02881
    13	2	-0.479963	 8.09418	 4.41575
    14	2	 0.12449	 7.65999	 4.98995
    15	1	  4.9014	 5.08498	-5.38295
    16	2	 5.96472	 5.20546	-5.10775
    17	2	 5.49621	 6.00718	-5.25389
    18	2	 4.50163	 4.44784	-4.57355
    19	2	 4.03313	 5.24955	-4.71968
    20	2	  4.9406	 4.39908	-6.24834
    21	2	  4.4721	  5.2008	-6.39447
    22	1	 3.39916	-9.48932	-7.54944
    23	2	 2.38663	-9.25583	-7.92516
    24	2	 2.78137	-8.58603	-7.39681
    25	2	 3.95488	-9.75219	-8.46757
    26	2	 4.34962	-9.08239	-7.93922
    27	2	 3.26386	 9.53536	 -7.0481
    28	2	  3.6586	-9.79484	-6.51975
    29	1	-0.296396	-1.96543	-9.55672
    30	2	0.0897857	-1.25401	-8.80462
    31	2	-0.0292984	-0.898915	-9.66679
    32	2	-1.21131	-2.36322	-9.08176
    33	2	-1.33039	-2.00813	-9.94392
    34	2	0.410963	-2.81169	-9.49054
    35	2	0.291879	 -2.4566	  9.6473
    36	1	 3.08718	 8.13813	  3.2782
    37	2	 4.07153	 8.27528	 2.79535
    38	2	 4.08124	 7.76629	 3.58556
    39	2	 2.46114	 7.73034	 2.46414
    40	2	 2.47085	 7.22136	 3.25436
    41	2	 2.71429	 9.17225	 3.38978
    42	2	 2.72401	 8.66327	    4.18
    43	1	 4.17442	 1.57348	 8.50319
    44	2	 3.28981	 1.85085	   7.902
    45	2	 3.22956	 2.05187	 8.81828
    46	2	 5.00741	 2.06416	 7.96815
    47	2	 4.94715	 2.26517	 8.88443
    48	2	 4.31642	0.503895	 8.26501
    49	2	 4.25617	0.704913	 9.18129
    50	1	-2.85101	 7.05815	 -7.2388
    51	2	-3.58167	 7.27005	-6.43747
    52	2	-3.03422	 6.52003	 -6.2913
    53	2	-2.31402	 8.01729	-7.35108
    54	2	-1.76657	 7.26727	-7.20492
    55	2	-3.47853	 7.01216	 -8.1471
    56	2	-2.93107	 6.26214	-8.00094
    57	1	-1.55881	 6.95263	-2.84143
    58	2	-2.12043	 6.12483	-3.31071
    59	2	-2.64963	 6.81035	-2.94518
    60	2	-0.863489	 7.27032	-3.63924
    61	2	-1.39269	 7.95584	-3.27371
    62	2	-0.898706	 6.43446	-2.12264
    63	2	 -1.4279	 7.11998	-1.75711
    64	1	 2.85703	 -8.2603	0.987529
    65	2	 3.15034	-7.72867	  1.9107
    66	2	 2.75412	-8.57077	 2.04296
    67	2	 3.78853	-8.26728	0.393257
    68	2	 3.39231	-9.10937	0.525516
    69	2	 2.22654	-7.52182	0.460246
    70	2	 1.83032	-8.36392	0.592505
    71	1	-0.0247011	 9.95975	 6.08788
    72	2	-0.178106	 9.27643	 5.23323
    73	2	-0.897526	 9.33085	 5.83578
    74	2	0.255077	-9.08777	 5.60269
    75	2	-0.464343	-9.03335	 6.20524
    76	2	0.928056	 9.60897	 6.52389
    77	2	0.208636	 9.66339	 7.12645
    78	1	-7.79115	  1.7741	 -3.2453
    79	2	-8.46161	 1.10294	 -3.8118
    80	2	-7.74047	0.678955	-3.38309
    81	2	-8.48315	  2.3161	-2.57577
    82	2	  -7.762	 1.89212	-2.14706
    83	2	 -7.5104	 2.53923	-3.99139
    84	2	-6.78926	 2.11525	-3.56268
    85	1	 6.75004	-9.75598	-7.72752
    86	2	 6.57133	 9.49637	-8.52123
    87	2	 7.06112	 9.18516	-7.78174
    88	2	 5.73511	-9.38515	-7.49668
    89	2	 6.22489	-9.69636	-6.75718
    90	2	   7.209	-8.91234	 -8.2739
    91	2	 7.69879	-9.22355	-7.53441
    92	1	-0.092647	-8.62849	 2.61021
    93	2	-0.913142	-8.47685	 3.33457
    94	2	-0.682804	-7.71988	 2.82709
    95	2	-0.431219	-9.50194	 2.02425
    96	2	-0.200882	-8.74497	 1.51677
    97	2	0.720914	-9.04214	 3.23304
    98	2	0.951252	-8.28517	 2.72556
    99	1	 8.02371	 3.78837	-3.04644
   100	2	 9.05531	 3.41376	-2.91854
   101	2	 8.42357	 2.76624	-3.17394
   102	2	 8.14615	 4.62961	 -3.7523
   103	2	 7.51442	 3.98209	-4.00769
   104	2	 7.81726	 4.29302	 -2.0854
   105	2	 7.18552	 3.64551	-2.34079
   106	1	-4.71815	 2.27128	 5.06301
   107	2	-4.22693	 3.25468	 5.17497
   108	2	-4.65868	  3.1148	 4.35179
   109	2	-5.37133	  2.2125	 5.95228
   110	2	-5.80308	 2.07263	  5.1291
   111	2	-3.90858	 1.55648	 5.29656
   112	2	-4.34032	  1.4166	 4.47338
   113	1	-6.26088	-0.321823	 -3.6239
   114	2	-7.17428	0.120206	-4.06117
   115	2	-6.96539	0.411864	-3.19232
   116	2	-5.48951	-0.114577	-4.38741
   117	2	-5.28062	 0.17708	-3.51856
   118	2	-6.43217	-1.40859	 -3.7264
   119	2	-6.22328	-1.11693	-2.85755
   120	1	 7.01345	-6.17649	-7.83507
   121	2	 7.75582	-5.85892	-8.58935
   122	2	 8.10775	-6.05627	-7.74035