8000
100
     27.1321    -20.1239    -47.9248           0           0         194
   -0.541007     13.3648    -5.69851           1           1        7262
     24.8804     33.1911   -0.149299           2           2        8018
     8.33217    -27.5203    -47.4828           3           3         139
    -30.1937     20.9208     26.0531           4           4       12304
    -23.4434    -33.0889    -23.6397           5           5        3856
     -41.166    -34.9622      18.536           6           6       10702
     18.3818     45.3393     31.6602           7           7       13092
    -49.6052    -16.3928     1.21923           8           8        7700
     39.0817     31.2621    -30.1878           9           9        3022
     11.2526    -46.9383     22.1755          10          10       11265
     37.7615    -20.8124     22.7436          11          11       11446
     41.7774     4.08809     21.4576          12          12       10972
    -36.8542     4.25444    -8.63326          13          13        6578
     -35.783     27.8729    -12.6659          14          14        6103
     8.39014     17.4134    -31.7369          15          15        2914
    -5.81668     32.6082     -6.5986          16          16        6761
    -39.4598     11.7767    -21.6423          17          17        4752
     1.31382    -43.4437     15.0397          18          18       10037
    -44.3556     10.1039     26.5456          19          19       12251
     30.5223    -48.8212     2.16472          20          20        8145
     11.1943     40.8649    -16.8118          21          21        5565
    -18.0764     5.96484    -40.9541          22          22        1582
      -16.45      -19.93    -8.88174          23          23        6433
    -38.6016    -42.3144     32.8681          24          24       12527
     35.3043    -45.3104    -6.00125          25          25        6296
     12.6287    -37.8046     4.75862          26          26        8215
     23.1735     31.9287    -36.1218          27          27        2393
    -30.1052      26.688      35.685          28          28       13604
      33.199    -14.8347    -19.0222          29          29        4595
     25.4648     9.75823    -20.4038          30          30        4743
     37.2392     38.3936     48.3021          31          31       15571
    -17.4488    -3.25967    -33.4984          32          32        2783
     37.5744    -10.7471    -20.3931          33          33        4621
     -40.654    -36.8709     32.1106          34          34       12577
     34.2818    -34.8848     15.9036          35          35       10096
    -11.5886     9.54396     44.4261          36          36       14734
    -6.36463     48.7625     -14.375          37          37        5610
    -4.36955     8.71309     32.6123          38          38       12861
    -35.0529    -24.8626    -32.8761          39          39        2653
     9.73717    -10.2835     40.2832          40          40       13989
     13.7952     3.45579     -12.748          41          41        5965
     9.02014    -49.7593    -46.0718          42          42          14
     4.88164    -14.2818    -37.3028          43          43        2088
    -42.0387    -42.0207     -19.454          44          44        4401
    -26.4961    -16.9281     15.9965          45          45       10205
      27.383    -28.5047    -46.0041          46          46         144
    -29.6953    -7.05078    -11.7135          47          47        5880
    -18.5073    -27.5127     13.6491          48          48        9507
    -38.5351    -15.3653     8.30171          49          49        8952
    -45.6903    -26.7359     37.9915          50          50       13251
     5.65182     26.3241     2.38109          51          51        8613
     37.8097    -14.9042    -8.24909          52          52        6471
     20.5332     10.5578     32.0704          53          53       12892
     1.34666    -36.5437     9.78367          54          54        8837
     10.4726    -23.7784    -21.6852          55          55        4540
    -19.9129    0.640783      -47.46          56          56         307
     -46.154    -19.6937    -16.7556          57          57        5175
    -25.7924    -49.9727     5.75782          58          58        8131
     16.4655      6.5507    -12.2559          59          59        5991
    -2.48678     24.7582    -20.7202          60          60        4836
    -35.9424    -43.5749    -11.1951          61          61        5653
     47.8819     36.6492    -16.0292          62          62        5549
     45.6853   -0.495137    -1.34463          63          63        7823
     47.7081    -39.4067    -5.92262          64          64        6949
    -15.9963    -18.1727     33.5571          65          65       12683
      1.9797    -3.45584     7.81364          66          66        9037
    -40.7144     35.3934     35.4694          67          67       13652
    -43.1903    -16.2742    -3.54692          68          68        7076
     10.6147     28.1949    -38.7335          69          69        1740
     21.8603     4.39204      8.6022          70          70        9092
     22.0799    -46.2906     36.5815          71          71       13143
    -14.9344    -35.3299     6.31907          72          72        8833
    -39.6619     -20.027   -0.944532          73          73        7677
     1.23342     -47.082     17.3467          74          74       10012
      9.4861    -34.0806    -29.4155          75          75        3214
    -44.9522    -29.7197    -16.2184          76          76        5126
     34.4126    -39.1936    -43.8434          77          77         696
    -32.1097  -0.0769316     38.5827          78          78       14054
    -25.1533    -13.4635    -17.2856          79          79        5231
    -28.1231    -49.7084     25.2496          80          80       11255
    -20.4558     -39.312     48.6889          81          81       15057
     24.4603    -26.1667    -3.02147          82          82        7018
     23.3396     9.82557     46.2197          83          83       15368
     -35.238     31.5456    -31.5965          84          84        3003
     19.4227     14.5072    -28.9304          85          85        3542
    -45.1372     1.78441    -25.1387          86          86        4051
      44.967     4.24085     19.5974          87          87       10973
    -27.3227     40.4665    -11.8588          88          88        6180
     14.7892     42.2233    -15.4698          89          89        5591
     42.5357    -43.4502     6.67499          90          90        8798
    -27.9372     3.34709    -36.2627          91          91        2205
     -48.514     24.4296     47.7899          92          92       15450
    -15.3309     7.30289     7.76643          93          93        9108
     29.1757    -33.1647     6.15574          94          94        8869
    -46.2028     37.7335     31.7177          95          95       13025
     8.41958     31.2465      20.885          96          96       11139
    -31.1564    -35.1467    -12.6938          97          97        5704
    -7.15493     24.4192      19.389          98          98       11085
    -31.3752     -39.538    -8.62022          99          99        6304
    -6.03948    -26.8995    -33.3798         100         100        2635
     15.3623    0.697863     26.4375         101         101       12191
     31.9036     33.4879    -40.9893         102         102        1770
    -28.7787     30.0069     46.1967         103         103       15505
     6.51264     -23.886     8.93477         104         104        8914
      36.377    -30.1899    -37.3126         105         105        1996
    -6.38817    -12.9098    -20.4096         106         106        4610
     17.1933    -46.2442     43.3852         107         107       14391
    -46.9315     5.88995     -4.6895         108         108        7200
     17.2449     24.4864    -42.2945         109         109        1091
     5.72954    -25.0114    -11.4886         110         110        5788
    -14.4419    -33.1927    -47.6568         111         111         108
     33.8261     43.5129     9.90518         112         112        9345
    -29.0402     28.2715      7.6773         113         113        9230
     34.8509     8.10473     10.3163         114         114        9746
    -26.6079     28.1061    -1.70208         115         115        7980
     11.5737     4.70433    -47.8835         116         116         340
     37.1812     25.0465     46.4036         117         117       15471
    -32.3958    -33.8389    -4.14858         118         118        6979
     -48.311     1.31227     -48.297         119         119         300
    -1.59791    -30.1165     34.4386         120         120       13237
     39.8546    -32.5186     28.5856         121         121       11997
    -48.5365     18.5922     34.8764         122         122       13550
    -17.3468     24.2675    -9.15096         123         123        6708
    -4.33025     7.38733    -8.31016         124         124        6611
    -49.9013     -38.327     24.9853         125         125       11300
    -16.1321     25.0839    -40.5341         126         126        1708
    -11.6727     21.5831    -12.7061         127         127        6059
    -42.2915     34.2682     -29.405         128         128        3651
     25.9296     7.37762    -33.4217         129         129        2868
    -20.6168     25.4156     15.5727         130         130       10457
     9.59939     30.3568     42.6809         131         131       14889
    -14.8786    -8.49008     -40.656         132         132        1508
    -40.3144     31.3316     39.6153         133         133       14252
     28.4867     20.9948    -10.6581         134         134        6069
    -7.69944     36.4479     -20.463         135         135        4910
    -11.5969    -32.1412    -24.2697         136         136        3859
     42.8496     32.9402     -22.195         137         137        4273
     23.6383    -5.22911    0.760091         138         138        7793
     10.9874     14.4327     -13.921         139         139        6040
    -28.6813    -5.47544     39.5709         140         140       14030
     -45.574     46.5946    -25.2504         141         141        4351
    -18.2998    -3.48667     36.5553         142         142       13407
     38.2917    -18.9716    -31.9079         143         143        2697
    -47.4736    -14.3826    -45.0805         144         144         825
    -19.5009    -31.5373     22.6099         145         145       11357
    -43.0967    -23.1884    -24.2525         146         146        3901
    -15.4804     41.3582    -14.6278         147         147        5558
    -4.21505    -23.6886    -36.9788         148         148        2036
     4.27655     30.9892    -24.3852         149         149        4263
    -9.65302    -19.4163    -47.5567         150         150         185
    -40.1329     35.6831     32.1368         151         151       13027
    -22.5705    -8.95823     20.9106         152         152       10881
    -9.10078    -14.4228     3.90292         153         153        8335
     29.4309     10.8169     34.4619         154         154       13519
     6.86751     3.81475    -42.0634         155         155         964
     5.90865      48.708     -37.749         156         156        2488
    -13.4147    -12.2358    -19.1426         157         157        4609
    -7.12527    -9.82317     1.12086         158         158        7760
    -46.1609     39.1763     -44.779         159         159        1175
    -19.9789    -29.0361    -10.3558         160         160        5757
    -23.2883     29.3273    -47.9819         161         161         481
    -8.77239    -8.88743    -31.5132         162         162        2760
     4.07067     34.0247     22.3482         163         163       11788
     6.92714     38.3287     -43.995         164         164        1189
    -34.5036     48.8917    -4.27512         165         165        7478
    -27.1218     46.8907     11.4702         166         166        9980
    -18.6094    -13.1973     44.5117         167         167       14607
     30.2776    -23.0266     12.7562         168         168        9545
     -45.038     32.1216     13.1497         169         169        9876
    -21.1747     -12.244    -22.5205         170         170        3982
    -27.2158     10.1052    -26.2091         171         171        3505
     43.8514    -25.4819     20.7296         172         172       10798
     16.2593    -23.6597    -15.1495         173         173        5166
    -37.7664    -11.5157    -4.12758         174         174        7103
     32.0415     47.4812     39.5022         175         175       14370
     18.0574    -22.7045    -30.6746         176         176        2667
     37.5009    -45.3261     37.8078         177         177       13171
     45.2644     28.6329     35.8649         178         178       13623
    -49.4391     32.7903    -24.7042         179         179        4250
     46.3901    -30.6634     9.89364         180         180        8874
    -8.90779     43.0916    -5.32938         181         181        7460
    -35.3231     29.3745     -38.604         182         182        1728
     22.3233    -12.7971    -49.9894         183         183         243
      26.656     6.37395    -17.8858         184         184        5369
     32.8531     13.8035    -49.7629         185         185         395
    -49.0779    -18.4212      4.3465         186         186        8300
     21.1536    -16.2245    -17.3628         187         187        5217
     39.8024    -7.74477     44.0707         188         188       14647
    -8.11732    -11.5878     36.8551         189         189       13360
    -10.3882    -39.1669      39.728         190         190       13809
     7.36183    -44.1178      10.221         191         191        9414
    -9.46207    -42.8727    -36.9824         192         192        1910
    -19.5347    -41.3031    -2.86349         193         193        6932
     28.3964    -7.12246    -19.5427         194         194        4644
      26.396     8.40559    -26.0574         195         195        3494
     37.8466     9.32693     38.0792         196         196       14121
    -28.4012     10.0954    -17.1444         197         197        5380
     14.5228    -43.1727    -44.3372         198         198         666
     22.5654    -20.2516      11.224         199         199        9568
     19.1775    -38.2995    -31.0971         200         200        2567
     18.7366     30.3008    -35.4981         201         201        2392
     1.47637     46.2528     25.7286         202         202       11862
     27.7278    -32.2211      40.335         203         203       13869
     -41.738     28.4379     -1.7928         204         204        7977
    0.868687     2.88539    -36.8029         205         205        2212
     19.6308     -27.019    -29.5238         206         206        3267
     11.6746     17.1372     26.8944         207         207       12290
     29.3269      3.7405    -45.8262         208         208         969
    -13.2284     46.3358     16.9686         209         209       10609
     47.5393    -9.32487     5.06608         210         210        8399
     -14.305    -43.5093     20.9951         211         211       10658
    -15.4763     5.72719     -47.957         212         212         333
      49.699     30.0852    -12.6155         213         213        6149
    -29.2073      20.093    -35.6747         214         214        2305
     4.39888     19.9894    -5.56165         215         215        7313
     -44.205     -19.929    -24.3392         216         216        3926
      11.008     1.03318     14.8331         217         217       10315
     49.5259     37.0616    -35.3484         218         218        2424
     9.42777    -5.04852     -34.828         219         219        2164
      10.144     31.8722    -40.2728         220         220        1765
    -33.9652    -21.1265     16.0695         221         221       10179
       22.08    -32.3365     5.08061         222         222        8243
    -1.58013     33.8577     21.3555         223         223       11137
     8.03314    -1.87987    -31.5428         224         224        2814
    -35.9242     11.5502     23.0787         225         225       11628
     38.6955     31.2296     1.67893         226         226        8022
     22.3821     12.6144     17.1732         227         227       10393
    0.505912    -23.5887     40.9663         228         228       13912
    -22.3927    -8.66953     34.1699         229         229       13381
     3.54687     1.57517    -15.7357         230         230        5313
     32.8089    -37.0423     12.9731         231         231        9470
     16.2822     4.18873      43.567         232         232       14716
     32.5612     11.2729     17.7816         233         233       10395
     34.2738     19.4277    -28.2092         234         234        3571
    -28.0821     40.3172     40.0357         235         235       14305
     -49.023    -36.8384    -27.4187         236         236        3200
    -37.3749    -36.7945    -34.6803         237         237        1953
     40.7543     -15.619     41.0231         238         238       13972
    -49.1533     8.10579    -36.7918         239         239        2225
    -41.2507     22.5543    -38.3121         240         240        1702
     32.9589     27.1071    -48.6472         241         241         495
     23.2795    -43.2982    -41.2872         242         242        1293
    -38.8145    -14.2537    -20.4735         243         243        4577
     27.3212    -36.5216    -36.8528         244         244        1969
     16.4851     3.78324    -18.3409         245         245        4716
     25.4724    -17.2961    -22.7474         246         246        3968
    -33.7942      6.6517    -43.5933         247         247         979
     -2.3315     24.1337     5.66207         248         248        8586
     21.0752    -5.92629   -0.851406         249         249        7792
     19.3737     35.9942     21.8237         250         250       11167
    0.762937     25.6382     7.60301         251         251        9212
    -46.2678    -24.6103     17.8835         252         252       10150
     15.6954    -2.27792     15.2203         253         253       10291
    -39.9829      -43.62     11.4196         254         254        9402
    -46.4657     33.7915     15.1678         255         255       10500
     23.3894    -17.2685    -17.8434         256         256        5218
     41.4588    -43.2145     18.6817         257         257       10672
     -46.267     10.4468     5.91253         258         258        8500
     46.4885    -33.9147     33.8492         259         259       12624
    -23.2112     14.2977    -26.4288         260         260        3531
    -24.4726    -48.0653    -15.9088         261         261        5006
    -34.8314    -24.9262    -46.6097         262         262         153
    -21.3857     48.1835     42.3757         263         263       14982
    -13.9515    -19.3747     32.5465         264         264       12684
      6.8185    -8.77626    -13.2179         265         265        5889
    -24.6821       29.47    -26.3289         266         266        3606
    -46.5944     27.3116    -28.3721         267         267        3600
     17.1257     21.0274     20.6331         268         268       11066
     12.7862     35.3155    -31.0683         269         269        3040
     2.20496     26.4113    -5.72303         270         270        7363
     39.6153     5.37484     16.8855         271         271       10347
     15.1995    -27.9227     28.8554         272         272       12016
    -6.23361     39.2269     6.99983         273         273        9310
    -19.0895    -38.9018     -36.439         274         274        1932
     2.82835     25.0927    -39.4826         275         275        1713
     2.68332    -47.0373     28.4739         276         276       11888
    -11.6385    -7.00739     23.3303         277         277       11509
     33.8847     -36.996      3.7354         278         278        8220
    -7.59862    -24.9576     -15.576         279         279        5160
    -44.1106    -9.16133    -40.8051         280         280        1501
    -38.8471      -32.58     8.61741         281         281        8852
    -6.07457     45.1416     31.0934         282         282       13085
    -25.2979     41.0402     9.68174         283         283        9306
     7.60907    -1.18487    -20.8846         284         284        4689
    -43.7746     15.1786     46.1838         285         285       15401
     13.7921     -40.042    0.357474         286         286        7565
    -5.69485     46.5553     25.4988         287         287       11861
     30.6691    -20.1572     42.8519         288         288       14570
    -7.94842     11.3935     34.0293         289         289       13510
     48.2004     3.86731     21.4988         290         290       10974
     48.0924    -49.1341     23.5764         291         291       11274
    -21.1854    -28.5771     34.1399         292         292       13257
    -34.7855    -5.68229     22.2469         293         293       11528
     -32.695     21.6058    -38.5473         294         294        1679
      29.741     29.7881     31.3255         295         295       12994
     14.8905    -38.5474      0.1746         296         296        7566
     40.4382     -21.436     27.4368         297         297       12072
     16.0614     3.95385    -4.28312         298         298        7216
     26.2067     24.5965     33.9887         299         299       12969
   -0.381623    -39.5043    -12.1689         300         300        5687
     26.3282    -34.6933     -45.881         301         301         719
     -49.824    -39.5136     46.7046         302         302       15050
     37.0586     30.7867     12.2077         303         303        9896
    -22.5932    -33.7198     -22.091         304         304        3856
     46.9633     -37.932    -21.2487         305         305        4474
    -1.93117     30.3335     43.2302         306         306       14887
    -10.0585     41.4927    -12.8494         307         307        6184
    -25.6125    -20.2345    -10.5142         308         308        5806
    -7.31109      47.024      -13.72         309         309        6235
     -22.438    -48.5511     43.7849         310         310       14381
     -34.084     26.9012     2.00743         311         311        8603
     38.4719    -26.3264     37.1005         312         312       13272
     35.3946    -35.3529    -13.4596         313         313        5721
     28.9189    -42.1609     40.9222         314         314       13794
    -43.8912     33.8171     20.0305         315         315       11126
     21.2031    -39.7971    -19.2621         316         316        4442
     -30.994    -14.6215    -35.7146         317         317        2079
    -26.3647     21.2022    -41.0188         318         318        1680
    -35.6978    -30.5522     20.3092         319         319       10728
     11.5808     41.6282     43.2084         320         320       14940
    -25.9762     19.1084     9.71551         321         321        9181
      6.2847     32.0155    -23.6244         322         322        4264
     10.7104     2.71469     17.4667         323         323       10340
     30.4383    -24.5729    -20.4924         324         324        4545
    -43.2368    -31.6661     21.0909         325         325       10726
    -48.0268     38.2831     24.3321         326         326       11800
     42.9517    -46.1707     20.7209         327         327       10648
    -6.63203     34.9462     33.2085         328         328       13035
    -33.3181    -48.6541    -35.6007         329         329        1879
     0.93354    -46.0982    -2.04513         330         330        6887
     49.8312    -47.0345     27.7846         331         331       11899
    -48.8571     40.4713    -16.8156         332         332        5550
     26.1905    -43.8569     29.8992         333         333       11919
     9.81735     -29.887      38.592         334         334       13889
     11.6991    -8.78662      46.141         335         335       15265
    -46.1728     8.22168    -41.9158         336         336        1600
     26.2861    -41.8085     25.7914         337         337       11319
     30.9367     16.2944     30.0694         338         338       12920
      39.045     -48.309    -3.90625         339         339        6897
     36.1294    -2.82534       41.13         340         340       14046
     13.8476    -9.91233     31.9904         341         341       12765
    -21.3109     21.5221     34.3045         342         342       13557
    -39.7867     11.7045     47.5404         343         343       15377
    -35.9401     16.8828    -27.1244         344         344        3528
     24.0196     34.1498     30.7744         345         345       13043
     34.4358     43.1819    -27.9854         346         346        3721
    -44.0148     31.1138    -39.7182         347         347        1751
     3.59535     13.2168     11.0428         348         348        9763
     2.89861     2.38699    -1.91649         349         349        7838
     13.9629    -42.6351    -49.4844         350         350          40
     -18.211    -47.5261    -19.6471         351         351        4382
     19.0026     19.7127    -32.8407         352         352        2942
      -27.37     19.3931    -8.79991         353         353        6680
    -21.4734     31.1914    -44.4894         354         354        1132
    -1.33338     8.22229     -32.534         355         355        2862
    -20.4181    -12.0513    -17.7184         356         356        5232
    -22.1343     46.6989     13.8008         357         357        9981
    -30.5065     31.5628    -15.2603         358         358        5504
    -9.82181    -10.9243    -40.7152         359         359        1485
     47.3767    0.484381     19.8161         360         360       10949
     24.2591     -41.656    -49.4709         361         361          68
    -37.9322    -40.9839    -26.3797         362         362        3178
    -44.3816    -23.2004     38.4326         363         363       13901
    -15.0864     48.5586    -7.11207         364         364        6858
     2.01747    -3.19629    -30.1583         365         365        2788
      8.7492     43.3348    -8.27113         366         366        6839
     15.4598     10.5464     29.1792         367         367       12266
    -14.7023     1.12157     40.1197         368         368       14058
     28.8212    -12.2281    -16.5203         369         369        5244
     16.7226    -38.6747    -10.9619         370         370        5691
     40.4814    -28.4302    -49.5776         371         371         147
    -42.5633    -42.6496     35.4223         372         372       13151
    -36.7709     -19.589      44.215         373         373       14553
     10.0434     -19.707    -26.8762         374         374        3315
    -28.6687    -41.7832    -24.4337         375         375        3805
     43.3315     -40.408    -6.52501         376         376        6323
    -9.82021     47.1349     23.1028         377         377       11860
     49.3743      14.821     27.5153         378         378       12299
    -24.9154     43.8449    -27.2561         379         379        3706
    -21.0598   -0.418384    -22.1854         380         380        4057
     36.4765    -40.4393     13.4064         381         381        9446
    -14.8699     25.4492     27.5284         382         382       12333
    -6.28768     8.80644    -9.97879         383         383        6610
    -2.94828     22.2916    -30.8133         384         384        2961
    -12.7631     20.7308      5.2598         385         385        8559
    -36.2531    -41.9536     40.8344         386         386       13803
     9.42756    -7.74521    -21.9079         387         387        4639
    -46.1798     24.2448    -30.5797         388         388        2950
    -20.1173    -10.0668     25.7537         389         389       11482
     12.6107     -27.364    -6.53449         390         390        6390
    -49.5592    -41.2595     -36.022         391         391        1925
     23.3303    -20.4236    -36.0457         392         392        2068
    -30.4406     12.8026      4.8882         393         393        8504
    -44.0717    -29.0008     46.7276         394         394       15126
     27.8492    -13.9403    -1.53201         395         395        7744
    -10.6405      13.934     42.9947         396         396       14759
    -33.2304    -12.2122     42.4683         397         397       14604
    -29.9217      21.734    -2.43868         398         398        7305
    -34.5186    -30.1241     22.3634         399         399       11353
    -2.24734     -31.359     22.0897         400         400       11361
     32.9665     44.9087    -30.3358         401         401        3095
     20.5376     46.1301     23.3054         402         402       11867
     4.75976     19.2352    -27.7136         403         403        3563
    -48.9525    -28.7273    -41.4232         404         404        1375
     12.7988     2.55418     13.3276         405         405        9715
    -24.8859    -19.6721    -16.5464         406         406        5181
     31.6368     31.2553    -8.09433         407         407        6770
    -3.99272     31.3858     45.8082         408         408       14886
    -23.4785     12.3834     48.3425         409         409       15381